formula,space_group,formation_energy_per_atom
Ni4Ta6,R-3c,0.10174024974414664
Mn4Sb2,I4_1/amd,0.49598083178150887
Ir2Na2,Imma,0.47213003244004526
MoSm,R-3m,0.5114126186332761
Sn17P12,I-43m,0.2150613449970501
Sr6Br4,R-3c,-1.1913767863029878
Ge4P12,Pnma,0.20868503656866455
Mn8Sb,I4/mmm,0.10883672676979472
Ba2Bi3,Immm,-0.8094130623309983
Mo3W3,C2/m,-0.0006663757429568781
InSn5,Cm,0.00035555629739469907
Ga2Sr,P6/mmm,-0.533854310311091
Pd2Ta2,P4/nmm,-0.3572595305178883
CuNb,P4/mmm,0.21193338329709643
Ac4I6,R-3c,-1.1456698935126979
Fe6Sb18,Pmmn,0.1547501784091292
InSn5,Cm,-0.0004405329807042335
In4Sn2,C2/m,0.005837277427945746
Sr6Br4,R-3c,-1.1928946056775946
In2Sn4,C2/m,0.001088492275230853
RhGe3,Imm2,-0.0905160589754983
CuEu,Pm-3m,-0.15980741365439277
Cu2Ga2,Pmma,-0.04615037591968729
Fe4Na8,Pa-3,1.6371448910768656
PtSm,Pm-3m,-1.2893512592068017
Cr4Sr5,I4/mmm,0.8411270269282158
CeSb,P-6m2,-1.0332635248915611
Nb2W6,Pmmn,0.37008034385891797
In5Br,Amm2,-0.14491796595117692
CsNi,Amm2,1.2079635948348568
In4Br12,Pnma,-0.8565492677849518
Ir3K,Cmmm,0.9047773221114603
Nb4W8,Pnma,0.12538866332914247
Ag4Sn8,I4_1/amd,0.03939530922542348
Nb6Pt2,Pm-3n,-0.41934858249463325
AlMn,P-6m2,-0.16539087175194833
SbP,Fm-3m,-0.0401790750342963
CrTa3,Immm,0.026584735856422625
Al2Rh,I4/mmm,-0.7879958682286438
TaV5,Cmmm,0.02854298320347463
Au2P,I4/mmm,0.30330087340326156
Ir2Ta4,Pnnm,-0.03360964335666239
NiPt,P-6m2,-0.04351958776146958
CaRh2,I4/mmm,-0.0716643596461175
Cr3Sr,P4/mmm,0.7330921242841102
Na2Pt2,Pmmn,-0.062292735079498396
Pb4As2,Pnnm,0.08859453785025136
Al3Sb5,Cmmm,0.24065650358479562
Ir16Pd8,Fd-3m,0.7219119116409539
Ag2Br2,P2_1/m,-0.43855583937150433
Ca4Ta2,I4/mcm,0.53492339105963
NiRh,P-6m2,0.04379639953237113
Ba2Sn6,Cmcm,-0.2436607623660132
AgMn,P4/mmm,0.829020340298344
CsMn,P-6m2,-5.420664132459949
Ga2Np,P6/mmm,-0.25345018354181786
Na2Pt4,Cmcm,-0.050740709027011256
GaNp,P-6m2,-0.18564366314329384
CuMn3,I4/mmm,0.2690644181336781
NpPd,P-6m2,0.06452580487432691
FeIr2,I4/mmm,0.014869236113600692
Cr2Sr2,P4/nmm,0.7446481806535772
Ag3Al5,P1,-0.0039340081548497885
Al4P2,I4_1/amd,0.004820986664606508
CsSb,P-6m2,-0.1281485487240288
Ac3Yb,Fm-3m,0.04835343043718554
FePb3,Fm-3m,0.7885119954880766
FeP,R-3m,-0.05381901279844303
Al3Nb,I4/mmm,-0.4241836065132585
Au6Mn2,Cmcm,0.0028625383247353753
Ni4Ge4,Pnma,-0.3244859129136115
NiSb2,I4/mmm,-0.002578556133567389
SmSb,P-6m2,-1.3450050363071764
Fe8Pt,I4/mmm,-0.05216740734617215
RhV,P-6m2,-0.23992756000428983
Au4Mn,Immm,-0.047531757761927196
Ni4Sb2,I4_1/amd,0.17705212492949526
Ag2Al6,I4/mmm,0.03410480230029744
Ag4Al5,I4/mmm,0.005084912144240327
Mo2As,Fmmm,0.430459223416058
Al2Sn6,Cmcm,0.0934787482373256
IrMn2,I4/mmm,-0.0004295886141948794
AcMn,P4/mmm,0.34851480629068554
Ni2Sb,P4/mmm,0.12095545966318373
Ni2Sb2,P4/nmm,-0.05822084399699268
AuMn3,Pmmm,0.2960059875718608
Ag2Al2,I4_1/amd,-0.009435697105845797
Ba2Ge2,Pmmn,-0.11685555054376229
IrSn,P4/mmm,-0.06469035281581981
V3Br,I4/mmm,0.5709922328291892
InI,R-3m,-0.37104109192055956
GaGe,R-3m,-0.014641019439152192
Al2Pd2,P4/nmm,-0.7411901811862194
Cr2W2,P4/nmm,0.08641021355585998
Mn3Sn,I4/mmm,0.18536879859450384
Ag3Al,P4/mmm,-0.038536865876587445
Cr3Sn,P4/mmm,0.43868524454905966
Al2Pd2,P4/nmm,-0.7471028637113477
Ge3Br,P4/mmm,0.18091221102046617
CrW3,P4/mmm,0.05378440507658766
Cr2Sn2,P4/nmm,0.2075312870777024
Fe2Pt,P4/mmm,0.98433841365906
KSn2,I4/mmm,-0.1852067996178531
Cr3W,P4/mmm,0.0703150051877337
CsV,P-6m2,-5.544304572661331
Cr2Sn2,P4/nmm,0.2026693071890291
Fe2Pb2,Cmcm,0.4067883133950829
V2Br2,P4/nmm,-0.1510803872846198
Cr4Rh,I4/mmm,0.6478040969868033
AgAl3,P4/mmm,-0.015206493471805249
VBr3,P4/mmm,-0.26191591936141423
CsV,P-6m2,-0.1117365929441112
CrNb3,Immm,0.07230804943818647
CrRh2,I4/mmm,-0.04645623372502191
Ba2Ge2,Cmcm,-0.5915835598114554
Mn2Sn,I4/mmm,0.20386380214031874
CrTa,F-43m,2.66607583354954
IrP,R-3m,-0.12618309914386305
Cu8Fe16,Fd-3m,0.32510066667989906
Fe12W12,Pbcm,0.1591388106529313
Na2Pt,P4/mmm,-0.10946876291543244
WP,F-43m,0.5181687470777128
PbV3,Fm-3m,0.3868962014052073
Nb4I16,Cmc2_1,-0.5983008791202679
Ta4Ge2,I4_1/amd,0.5502794154585248
Ge4As2,Pnnm,0.2688744583085179
As4Br2,I4_1/amd,0.18868158623883366
InPt,Fm-3m,-0.2747187912913738
GaP,Pm-3m,0.28270778461576596
NiSn,P-6m2,-0.1266843635676862
Au2In4,Pnnm,-0.14189958689274995
AlNb5,P4/mmm,0.007176199399160292
Au4Sr16,I-43m,-0.11304361824002562
Pt8Sn4,I4_1/amd,-0.3379489042611444
Cu6Pt4,P1,-0.11968743726813216
Au3P,Immm,0.2305156716459713
Ge2As4,Pnnm,0.11969471217362819
NpSb,Fm-3m,-0.44974825214085357
CrNb5,F-43m,0.4547293105615727
CeBr,F-43m,-0.8023102457033016
Ce12Ga8,P4_2/mnm,-0.4472578612747064
Ba2Pt2,P6_3/mmc,-0.4142137698980046
CaRh4,I4/m,-0.012359346047200149
Cu4Fe8,Pa-3,0.9290346282517644
RbRh,P-6m2,1.0519039009339615
Cu2Ni26,Fm-3c,0.26773962988900735
CrTh,F-43m,1.7097904528933139
PdRh2,I4/mmm,0.0679740127382568
YbP,R-3m,-0.8482652900103984
Ir2Mo4,Pnnm,0.2558778878110732
Ni2As6,I4/mmm,0.2952248090641767
Al3V,I4/mmm,-0.29677454344885756
Pd2Ta2,P4/nmm,-0.3618708831950421
NiAs3,P4/mmm,0.142732757003877
Cr10Nb6,I4/mcm,0.3962055410731953
Ag3Al4,P-1,0.003962790239954066
Cu2Ge4,Pnnm,0.18857868814602696
CrMn,P-6m2,0.24331308730628365
Ba2Pt2,P6_3/mmc,-0.45791606202894597
Ni2Ta4,Fd-3m,0.6395073564584782
FeAs3,Imm2,0.0881821666677709
As3Br,P4/mmm,0.2126619543483046
Mo3P,Fm-3m,0.07560031524579891
Ni2Sn,I4/mmm,-0.10548984331168576
K4Sn2,Pnnm,0.0339120821430973
Al3P,Pm-3m,0.10031778736925112
Fe8Mo16,Fd-3m,0.2217364434622553
Cu3Ta,P4/mmm,0.0786238311665679
AlTa2,I4/mmm,-0.10957250440790507
Cu5Pt5,P1,-0.1138101380258533
CuTh,F-43m,0.7968494262166388
Ba2V,I4/mmm,0.6621519240922341
PbSr7,Fm-3m,-0.030999434316967056
Fe3As,Cmmm,0.016682753327807553
In3K,Cmmm,-0.07807715567121898
Au3Sr,Pm-3m,0.7382655086643606
SrW2,Fm-3m,3.2276063672278554
Al2Rh,P4/mmm,-0.6991817297737448
Pd2Rh2,P4/nmm,0.06432343895850146
WSb,F-43m,1.5974823249986905
Cu6Ni2,Pm-3n,0.10321429767618451
AgP3,Fm-3m,0.6377887469169732
W3Sb,Fm-3m,0.6142879079802093
AgSn,P4/mmm,0.05428117914725217
Ir2Mo6,Cmcm,0.045988800711995736
Ta2Ge2,P4/nmm,0.10173526885240669
BiBr,P-6m2,-0.3222004881677978
CaW2,I4/mmm,0.6406378987075527
CrCu,Fm-3m,0.99933812170078
Mo4Nb,Im-3m,1.5855713652165122
Ir3V,P4/mmm,-0.020382560563048102
Eu8Ge4,Pnma,-0.8865988076880225
Al12Pb12,Pbcm,0.2570537015373606
Ni6Ge18,Pmmn,0.21982669534627539
Au8Mn4,Pnma,-0.0326742680376834
Mn10Sn6,I4/mcm,0.2141267769039148
K8P4,Pnma,-0.08613834717390863
Al2V,Fmmm,3.021478292177701
CsW,P-6m2,2.392753487086816
CrPd,Fm-3m,0.7786205625391744
K3Na,P4/mmm,0.017588588320603282
NaPb3,Fm-3m,-0.05462194594813674
Ni3Sb,I4/mmm,-0.13614058228753034
Ir3Mn4,I4/mmm,0.02160226628202468
Cr12W18,P4_2/mnm,0.33466981236464527
CrRh3,I4/mmm,-0.06999137973499447
PI,R-3m,0.6765507848780659
CuI,P-6m2,0.16326824084414904
Al18Pb6,Pmmn,0.20843447102866305
WSb,P-6m2,0.5521977096633099
Fe2Ga4,I4/mcm,-0.17461953860960536
Mn2Sn2,I4_1/amd,0.1906174282030415
PI,R-3m,0.6761453129882056
AgAl2,P4/mmm,0.19276388063954583
Cr5Rh4,I4/mmm,0.04341325106488606
Ge8Br,I4/mmm,0.2846492762005539
Ag5Al2,I4/mmm,-0.004772108177517863
Ag4Al2,I4_1/amd,0.03737867978669248
Cr8Rh,I4/mmm,0.21539097245440708
Mo7Nb,Fm-3m,0.4178278478907451
BaIr2,Fm-3m,1.7617864823163814
Pd12Ta18,P4_2/mnm,-0.18821943322440687
K2As6,I4/mmm,0.018315275473644643
AlPd2,I4/mmm,-0.7917135539533374
Al4Pb2,Pnnm,0.4596315211143362
Ir2Na4,Cmcm,0.23103792751241356
Ge3P,Pmmm,0.4028421099060848
Pd2Rh2,P4/nmm,0.041343169088847276
Cu7Pt5,P1,-0.11853955965565237
Ba3Ir,Pm-3m,0.3315548688782104
Ta3Ge,P4/mmm,-0.10703947102131117
Ag6Al6,Cmm2,-0.025939400101567738
Ag5In,P4/mmm,0.0038147416913586105
PAs3,Fm-3m,0.5081874789383827
VW2,Immm,0.4517394004088544
Ba3Ir,Pm-3m,0.03839829997855215
In4Pb16,I-43m,0.2226825117026813
Pb2Sb6,Cmcm,0.15630587451269307
PaBi,F-43m,0.5006361656619811
CrTa,F-43m,2.5070367353222007
Ag7Ta,Fm-3m,0.33181138905320395
FePb3,Pm-3m,0.47860182393839956
Ni4Rh2,Cmmm,0.16686926906054111
AlRh2,I4/mmm,-0.637019060757113
WSb,Pm-3m,0.6402363637939983
Ba4Ir2,Fd-3m,1.2154619112347849
Cu5Pt7,P1,-0.11722463290496361
Ni8Ta16,Fd-3m,-0.08071247751933797
MoP3,Pm-3m,0.5510076566921223
Ba2Ni2,P6_3mc,0.597629677831121
AuPt,F-43m,1.1568970335132995
Cu3Ge4,I4/mmm,0.2297082476966535
NbP2,I4/mmm,-0.6493615298102936
Mo2Pb2,Cmcm,0.5946080176813062
CuIr,F-43m,1.783717347151633
AcMn,P4/mmm,0.41229347240347725
Cr5Nb,F-43m,0.14691129272384865
K2As2,P4/nmm,-0.160004924188351
CuNi,F-43m,1.2524800810011456
Fe3Na,Fm-3m,1.1271164438069459
BaBr3,P4/mmm,-1.4692358460725734
Fe2Pb2,Fd-3m,1.224709304364091
Cr4P,Im-3m,0.722891464014863
Pd16Ta14,P4_2/mnm,-0.2155509804832832
Ag4Al4,Cccm,-0.0171242730527843
CrP7,Fm-3m,0.6510238187764203
FeW2,I4/mmm,0.3111246762356288
SnP3,Fm-3m,0.5314056150159168
FeNa,Fm-3m,2.2341407373912583
PtV2,Fmmm,-0.3400272227183064
NbPb3,Cmmm,0.5071251497625129
Ba3Br,P4/mmm,-0.6944199402649203
CsBr,F-43m,-1.8502803122460794
V4W4,Pnma,0.23787652119263747
K5Ge,Amm2,0.11715442905018492
Ba2Cu2,Cmcm,-0.0169725723717149
Al12Sn4,Pnma,0.13736798007084117
Ba2Cu4,Cmcm,0.16799820618337455
K3P,Imm2,0.10898894121971914
YbBi,F-43m,-0.14194304614409914
V2W,Immm,0.15085984160564317
Fe3Pb,Pm-3m,0.38681687516629726
Cu6Pt6,P1,-0.09412773969636312
MoPb3,Immm,0.5025277881857404
Ca3P5,Cmmm,-0.4401060503561709
Ca12Mo4,Pnma,0.6399058390486374
As2Br6,I4/mmm,0.3046454324844947
P5As,F-43m,0.7837244693717675
W24P5,I-43m,0.43164808367131086
Fe24Pb5,I-43m,0.554399661464772
Ga14Pt6,Im-3m,-0.5450134948837502
Mo4Pb2,Cmcm,0.5902547794711998
RhU,P4/mmm,-0.4408425554688815
Fe2Pb,Fm-3m,1.38281204978178
Ag2Ge2,Pmmn,0.17365904556802203
FePd3,Pm-3m,-0.1061349423812592
PtV3,P4/mmm,-0.2900346358635062
NbW3,Cmmm,0.47195167841272223
Ag2Ca4,I4/mcm,-0.2481122537202737
RhGe2,Fm-3m,-0.32934225902586317
CuK,Pm-3m,0.4781945344055849
Sb3Ge,Immm,0.2660213422478197
AlCu5,Cmmm,-0.1362652104227132
Au3Ga,P4/mmm,-0.039059341343633314
Na2Pt2,P4/nmm,0.05348833095739369
NbW3,Pmm2,0.4627843224115704
Na4Pb,Im-3m,-0.0642697687374035
Fe16Pd8,Fd-3m,0.26781297940785365
Ba6Sn2,Cmcm,-0.14450532516415837
Fe3Pd,Fm-3m,0.0705064552450434
Nb2W4,Pnnm,0.19484791954661537
AgSn,P4/mmm,0.04094689292221876
Mo3Ta,P4/mmm,-0.1259140954870599
CrNa,Cmmm,0.9867061782141313
MnW,F-43m,1.9896804572734794
Fe4W2,I4/mcm,0.6376702269705253
Sb3Ge,Pmmm,0.2645231169142601
GaNa3,P4/mmm,0.02421685525055617
AuGa3,P4/mmm,-0.044392137011382005
PAs,Pm-3m,0.552972441845033
Nb4V8,I4_1/amd,0.15976206425438613
TaYb,F-43m,3.229303225683664
BaGa4,I4/mmm,-0.46958004588677404
Fe5Ir,P4/mmm,0.15234810865599732
Ba16Ir8,Fd-3m,0.07967460130833241
Au2Nb3,I4/mmm,-0.18095411781638546
Ba2In,I4/mmm,-0.3119255525568878
SnTa,F-43m,1.464329287677855
FePd3,Pm-3m,1.3101389883025165
VW2,I4/mmm,-0.09375382362166344
FePd2,Fm-3m,0.637573661042404
K2P2,Cmcm,-0.42016083387719316
Ba2Cu,I4/mmm,0.023347709601664768
Cu3Sb,Fm-3m,0.12921636770666378
KP3,Pmmm,0.016365842778186313
SmYb3,Pm-3m,-0.12397089182317433
Nb2V,I4/mmm,0.05037056158204223
Na2Pt,I4/mmm,0.004967312895204874
Ag2Ge2,Pmmn,0.17395861162852055
PtV3,I4/mmm,-0.24328826181930552
Ag3Ge,Pmmm,0.08006941736012418
TaGe3,Cmmm,0.210347076036002
Nb3W,Immm,-0.027486534281749186
Cu6Pt4,P-1,-0.1122154596063794
Ni4Rh8,Pnma,0.05357788716754541
SmTa,P-6m2,0.266372281515423
MnNb,F-43m,1.8045609325081902
Ga2As2,P4/nmm,0.2211742613306651
FeAs3,Pmm2,0.2431374712098151
Cr3Rh,Pm-3m,0.14700796949402317
AuP3,Cmmm,0.5236402867825065
Fe8Pd4,Pa-3,0.8325658894387308
CaCr3,Cmmm,0.7352797838408138
Cr3Sr,P4/mmm,0.6730755965588244
Ag3Ca,P4/mmm,-0.1590576046828498
CeGa3,Fm-3m,-0.29831945870452214
SbGe,Cmmm,0.3136889612467888
As6Br2,Pm-3n,0.7613573160563023
Au3Cr,P4/mmm,0.07272051187784445
AlTa2,P4/mmm,0.6240335894659429
Au6Ga10,I4/mcm,-0.08793867032958635
Nb8P,I4/mmm,-0.147451398258034
Ca2Sn,I4/mmm,-0.4536710840000347
In2Na2,P4/nmm,-0.09582227380269703
NiAs3,Fm-3m,0.00778962014393958
Al3Rh,Pmmm,-0.5352493491958317
CaW3,P4/mmm,0.7743857544767856
Ba3Sn,Immm,-0.3223431693894989
WAs2,P4/mmm,0.570508179759018
Ag14Ca4,Cmcm,-0.2682671116525693
Ag4Al8,P-1,-0.02272126949959663
Mn8W16,Fd-3m,0.25055629644406946
Al6Rh6,Pmmm,-0.7530327867590891
Cu4Sn5,I4/mmm,0.2151247137357125
Mo3Sr,Cmmm,0.7041883060347418
Au3Nb,Pmmm,-0.038156165935011366
CaW3,P4/mmm,0.7728979899659549
P3As,Fm-3m,0.6037013122326167
MoTa2,I4/mmm,-0.1507586219781795
Sb4Ge2,Cmcm,0.24038658943971628
AuNb2,Immm,0.05196167672126961
Ni3Sm,Pm-3m,-0.3299709059681639
CrAs3,I4/mmm,0.5987397938903678
IrPb2,I4/mmm,0.22575771889723661
Na2Pt2,Cmcm,-0.06783475845274589
FePd,Fm-3m,0.48125807034887913
IrBr3,P4/mmm,0.6300865230216401
Cr2As4,I4_1/amd,0.08347980058252465
Pb6As2,Pmmn,0.28922667106808
Ga2Na,I4/mmm,-0.04804963071038119
FePd3,Fm-3m,-0.023077667529857848
Mn6W2,Pm-3n,0.17465073938247322
Cr7Nb,Fm-3m,0.48849262558765183
Ir2Pb2,P4/nmm,0.3738050343011903
Au2Nb2,Cmme,-0.10821285330637043
AuNb3,Pmm2,0.09587261776218625
Nb2V4,I4_1/amd,0.4809952880147084
Au2Nb2,Pmma,-0.0960918000005977
Ga3Na,I4/mmm,-0.013231528768286704
AlGa3,Cmmm,0.03613137606280459
GaNa3,I4/mmm,0.019456373344572953
Ag3Mn,P4/mmm,0.2277962190790639
Au3P,Cmmm,0.23631622785250572
NaPt,P4/mmm,-0.13442485568110074
As4Br,Im-3m,0.8804043387066216
Ni32P12,R-3c,-0.4987492898751827
MnPt3,R-3m,-0.1437391117127671
Ca2Sr,P-3m1,0.054686981063067464
Mn3Ni,R-3m,0.08602111002231716
CaW3,R-3m,0.7704619233723466
CaAs3,R-3m,-0.1566447836674767
In2Rh,P-3m1,-0.05971622994057254
MnPt2,P-3m1,-0.1812221219750363
Au7Ba6,R-3m,-0.48380524991215335
Ga2V3,P-3m1,0.27764179518199655
Nb2Ge2,R-3m,0.08782503482979465
Ca2Ge2,R-3m,-0.33695038572890246
Ir2V2,R-3m,-0.10914264643344396
Au2Ba2,P-3m1,-0.4351079306977743
SnGe2,P-3m1,0.25971467290278366
Cu2Sn2,P-3m1,0.19372525875073965
Mn3Pt2,R-3m,0.0922017092049657
Fe2K,P-3m1,0.975081012242614
CsYb,P-6m2,0.2133070813367397
Sn3Ge2,P-3m1,0.11775143100364645
Sn2Ge2,R-3m,0.2992509707167845
NbNi2,P-3m1,0.11018903623070031
Nb2Ta,P-3m1,-0.006330781241407142
Fe2K,P-3m1,0.9579232594733575
AgK3,R-3m,0.17579287589112313
AuGa2,P-3m1,0.026985614051659706
Fe2Mn3,R-3m,0.12157434332612098
Mo2P2,R-3m,0.13841918608021922
Al3Ga2,P-3m1,0.12318245114662858
Ca2Ge2,R-3m,-0.27791709033361567
K2P2,R-3m,-0.16586858160771678
Ir2Ni3,P-3m1,0.3848854087588677
Cu2K3,R-3m,0.4129029723054035
Fe2As2,R-3m,0.14679364263748163
Cu3Rh,R-3m,0.025036324075760064
Ag2Pb,P-3m1,0.11535514920572965
Cr3Nb,Immm,0.09692279785754465
Al2Pd,I4/mmm,-0.5890005074909356
CrW3,P4/mmm,0.0467321429249381
Sr2W2,R-3m,0.9689714859026317
Ag2K,P-3m1,0.19823602101658336
WAs2,P-3m1,0.05663350415469045
Ga2Sn2,R-3m,0.04299721042714122
Cr2Rh,P-3m1,0.09078041309995417
Ir2Ni,P-3m1,0.19711233930708025
AgAl2,I4/mmm,0.00931272243404043
AlMn2,P-3m1,0.08745850700858544
MnPt2,P-3m1,0.2697436725906807
Pd3Pt2,R-3m,0.15256551908838886
K2V2,R-3m,1.4492613376023162
CuNb3,R-3m,0.26747303642176234
InRh3,R-3m,0.06223899751977413
CrAs3,R-3m,0.16495867254450047
CuSn2,P-3m1,0.10553617362217398
Nb2Pt2,Pmma,-0.6457401466596764
Fe2Pb4,Pnnm,0.4720998800685994
Ni3Sb,P4/mmm,0.044934254023212716
Pd2P2,P-3m1,-0.06704652437578229
Ga6Mn6,P-3m1,0.23748995008527865
Ga2Br2,P-3m1,-0.5398102866578927
P3Br2,R-3m,0.2490337206925048
Ba7Pd6,R-3m,0.15213877706412132
AgPb,R-3m,0.1275801240181318
P24As5,I-43m,0.2436816057725621
Mo3W3,Cm,-0.0025435217114875286
Ca4P2,Pnnm,-0.8954120405437109
Ba4Br,I4/mmm,-0.19486904220788617
KAs3,P4/mmm,0.0965459569694791
Ba2Pd3,P-3m1,-0.4291665774177247
Ga2Nb3,R-3m,0.08067116768703926
Cu3In,R-3m,0.22342048424330407
Au3Ga,R-3m,-0.05657508643520748
Ca18Mo6,Pmmn,0.6779185862039393
Ag6Al6,I4mm,-0.021749214715362914
RbW,P4/mmm,2.187420242882454
MnMo3,I4/mmm,0.3761156942213759
Fe2Ga,I4/mmm,-0.12365276096924423
Mn3Sn,P4/mmm,0.22060867266678486
PI,R-3m,0.6799114991940689
Ca2W2,P-3m1,0.7517205993905174
Ag2Pb2,R-3m,0.301367482177779
Ga2Sr,P6/mmm,-0.531548045592905
In2Br2,Cmcm,-0.8172334018909813
Cu5Ge,P4/mmm,0.06551667447165659
Ag2Al2,P4/nmm,-0.01369656971817923
MoW3,P4/mmm,-0.0002471644391786043
Fe3Na,Fm-3m,1.1195761482720776
PtRh2,P-3m1,-0.00015705235197197945
AuP2,P-3m1,0.2398619498441311
Ca2Fe,P-3m1,0.8051836766950758
Al4Th6,P4/mbm,-0.24191171605569578
Ge4Br5,I4/mmm,0.2780708243690522
Cu2Ga4,Pnnm,0.031233323128698604
CuGe2,I4/mmm,0.18050515983973034
FeSb3,Immm,0.3358709608334767
In5Sn,P4/mmm,-0.006264214339336031
Sn2W,P4/mmm,0.537531149489921
AgK2,P-3m1,0.11170907244632507
AlNa2,P-3m1,0.16383129512766845
MnRh,Pm-3m,-0.19374377667267062
Ba2Pd4,Cmcm,-0.2163654657637609
Ba3Sb,P4/mmm,-0.4907969730717179
Pt3As,P4/mmm,-0.004400947379038733
Ga2P,Fm-3m,0.1252236395168893
AgP,Pm-3m,0.4563419294753772
Fe2Pd2,R-3m,0.001194901477514776
Ga2Sn3,R-3m,0.04976791118433752
Fe2P,P-3m1,-0.2352563067826985
Ni4U6,R-3c,0.07295809156319137
Ba2Cu4,I4/mcm,0.1950184329572829
AlNi,P-6m2,-0.49302915613013987
CaPb5,Amm2,-0.10957793316820445
Ag4Al,I4/m,-0.048546640132887474
V2Br2,I4_1/amd,0.6952620889988701
CuGe,P4/mmm,0.17502194025799422
FeTh,Fm-3m,0.16345474551250927
In2Sn,P4/mmm,0.08368352493852527
In2Sn4,C2/m,-0.0003308860237745866
MnBr8,I4/mmm,0.04700760850758851
GeP,P-6m2,0.3757062883912843
Ca3Pb,Immm,-0.27439552336675277
IrTa3,Immm,-0.316739098636301
AlPd3,P4/mmm,-0.60903041698508
AuNb,F-43m,1.243237284066657
Pb3Ta,I4/mmm,0.7059161694290506
AlPd,P4/mmm,-0.22994197465041744
Ga12P17,I-43m,0.04345748951545035
Ni2Sb2,P4/nmm,-0.04581015541176647
MoTa2,I4/mmm,-0.15056032804927355
KSn3,P4/mmm,-0.17985660299820738
Fe2Ga2,I4_1/amd,0.12406485379649901
As3Br,P4mm,0.09748523084220162
FePt3,P4/mmm,0.16895106029083262
V2Br,I4/mmm,0.43205933426278875
Cr2Rh2,R-3m,0.6235414682612213
Fe12Mo17,I-43m,0.1109067026742717
Sr4Br8,Pnma,-2.1555202848237465
Mn4Sb5,I4/mmm,0.6126234421869883
Ba2Pd4,Cmcm,-0.42012776919336287
As4Br,I4/mmm,0.0467358917197771
AgAl3,I4/mmm,0.03228927701149109
CuIr,F-43m,1.7455088971045418
FeNa,Pm-3m,1.1342721190919103
Ba7Pd6,R-3m,0.15579849643496146
Ca12P12,Pbcm,-0.9428178993722339
Fe17Pb12,I-43m,1.2324810144787373
Al8Sn4,Pnma,0.16398145277071366
K8As,I4/mmm,-0.05186749542513899
In2Sn4,C2/m,0.001566859898249599
Ir4Ta2,Pnnm,-0.13605350710584338
V2Br,I4/mmm,0.4419066354074476
K2Sn,I4/mmm,-0.029219001371462678
Cu2In2,R-3m,0.2015220569592242
Ir4As12,Im-3,-0.42536219858306
Ag4Al3,I4/mmm,-0.01503156221367874
Mo2W4,C2/m,-0.0005864744588208737
CsNi,Amm2,1.1901183413278558
Ba2As4,I4_1/amd,-0.7628909404239513
BaBr2,I4/mmm,-2.1246359399750907
NaPd3,Cmmm,0.03543553529412691
K3Na,P4/mmm,0.00882930191361786
AsBr4,Im-3m,0.08273684214976776
CuNi,P-6m2,0.009496146860143995
Cr2Ta2,Imma,0.013315177222134267
Ba2V,I4/mmm,0.6647424311657275
Ni2Sn2,P4/nmm,-0.03865176741345078
Fe3Ga,P4/mmm,-0.081774550841752
Ag2Al,I4/mmm,-0.06205674735268948
AcRb,Fm-3m,0.9865484408082801
CrNa,Cmmm,0.9901028503581726
Ba3Ir,Fm-3m,0.338428116950626
Cu5Ge4,I4/mmm,0.14043881756061438
K4As2,I4_1/amd,-0.12326308615513781
SmBi,P-6m2,-1.0609019344514445
BaPd3,Immm,-0.16966758914493596
InBr3,Immm,-0.5541793780190627
InBr5,Amm2,-0.27121773593772264
Ba3Fe,P4/mmm,0.9129481272351261
AuNi,F-43m,0.9641375582202292
AuSr,Pm-3m,-0.7391766903276662
Ac4Br6,R-3c,-1.476718120044118
Ag4Al4,P1,-0.02051409215784261
Ni2P6,I4/mmm,0.34133070336043847
Sb4Ge2,Cmcm,0.28645702948921387
AlPd,P-6m2,-0.769562325120063
InSb,Fm-3m,-0.13041741716771016
Ba2Br4,I4/mcm,-2.1866423000315485
AlP2,I4/mmm,0.005681561847775167
Fe2Ga2,P4/nmm,0.047430564104895545
Cr6Ta18,Pmmn,0.2734942512328213
Cu6Pt5,P-1,-0.12212530591256089
K2Ge2,Imma,-0.14880172307051254
Ag2Na,Immm,-0.01216837202733038
Ni4Ta4,P2_13,0.002778304760214567
VGe3,P4/mmm,0.10486923033458151
W2As2,P4/nmm,0.3709171496726551
Cu4Ni2,Fd-3m,0.21415438130916264
Fe4Mo16,I-43m,0.753637950687812
Ni3Np,Pm-3m,0.14013428638739356
NaI,F-43m,-1.3156962778764316
Au2P,I4/mmm,0.31165126681798877
GaP2,Fm-3m,0.4456024952488941
CuNi4,Im-3m,0.8709995730334945
BaTa3,P4/mmm,1.209436450673138
NiTa2,Fm-3m,0.3244954078270427
IrAs,Fm-3m,0.26673701603467315
Ge18P6,Pmmn,0.35694184657410943
Au12Sr17,I-43m,-0.34975685759716535
Mo2Nb2,Fd-3m,-0.0860738262660874
PaGe3,Fm-3m,-0.3479441991654255
TaGe4,I4/m,0.177546213788969
Pd2Rh2,P4/nmm,0.03351796864656187
K2As2,P4/nmm,0.38606071319509816
V3Br,I4/mmm,0.5547448324913553
Fe2Pb2,Fd-3m,1.216375423914755
K2As2,Imma,-0.3857350325807225
Fe5As3,Cmmm,0.04062930606940718
AsBr3,P4/mmm,0.1837854807495578