formula,space_group,formation_energy_per_atom
Au2Sb2,Cmcm,-0.025592815343106867
Al2In2,P4/nmm,0.19809461239497095
Ag3Br,P4/mmm,-0.04662704465909018
Al16Ge8,Fd-3m,0.20016142286371105
Pt2Th2,Cmcm,-1.2350655038663056
Ga5Sr,Cmmm,-0.1824981728377247
MoSr3,Pmm2,0.9291439460161364